# vtk DataFile Version 3.0
ISOP2 triangle mesh created from MATLAB
ASCII
DATASET UNSTRUCTURED_GRID
POINTS 9113 float
3.000000 0.000000 0
2.998325 0.100245 0
2.993301 0.200378 0
2.984933 0.300287 0
2.973232 0.399861 0
2.958211 0.498988 0
2.939885 0.597558 0
2.918276 0.695460 0
2.893408 0.792586 0
2.865307 0.888827 0
2.834007 0.984075 0
2.799542 1.078223 0
2.761950 1.171168 0
2.721273 1.262804 0
2.677557 1.353030 0
2.630850 1.441745 0
2.581205 1.528850 0
2.528677 1.614247 0
2.473325 1.697841 0
2.415210 1.779539 0
2.354398 1.859250 0
2.290957 1.936884 0
2.224956 2.012354 0
2.156471 2.085577 0
2.085577 2.156471 0
2.012354 2.224956 0
1.936884 2.290957 0
1.859250 2.354398 0
1.779539 2.415210 0
1.697841 2.473325 0
1.614247 2.528677 0
1.528850 2.581205 0
1.441745 2.630850 0
1.353030 2.677557 0
1.262804 2.721273 0
1.171168 2.761950 0
1.078223 2.799542 0
0.984075 2.834007 0
0.888827 2.865307 0
0.792586 2.893408 0
0.695460 2.918276 0
0.597558 2.939885 0
0.498988 2.958211 0
0.399861 2.973232 0
0.300287 2.984933 0
0.200378 2.993301 0
0.100245 2.998325 0
-0.000000 3.000000 0
-0.100245 2.998325 0
-0.200378 2.993301 0
-0.300287 2.984933 0
-0.399861 2.973232 0
-0.498988 2.958211 0
-0.597558 2.939885 0
-0.695460 2.918276 0
-0.792586 2.893408 0
-0.888827 2.865307 0
-0.984075 2.834007 0
-1.078223 2.799542 0
-1.171168 2.761950 0
-1.262804 2.721273 0
-1.353030 2.677557 0
-1.441745 2.630850 0
-1.528850 2.581205 0
-1.614247 2.528677 0
-1.697841 2.473325 0
-1.779539 2.415210 0
-1.859250 2.354398 0
-1.936884 2.290957 0
-2.012354 2.224956 0
-2.085577 2.156471 0
-2.156471 2.085577 0
-2.224956 2.012354 0
-2.290957 1.936884 0
-2.354398 1.859250 0
-2.415210 1.779539 0
-2.473325 1.697841 0
-2.528677 1.614247 0
-2.581205 1.528850 0
-2.630850 1.441745 0
-2.677557 1.353030 0
-2.721273 1.262804 0
-2.761950 1.171168 0
-2.799542 1.078223 0
-2.834007 0.984075 0
-2.865307 0.888827 0
-2.893408 0.792586 0
-2.918276 0.695460 0
-2.939885 0.597558 0
-2.958211 0.498988 0
-2.973232 0.399861 0
-2.984933 0.300287 0
-2.993301 0.200378 0
-2.998325 0.100245 0
-3.000000 -0.000000 0
-2.998325 -0.100245 0
-2.993301 -0.200378 0
-2.984933 -0.300287 0
-2.973232 -0.399861 0
-2.958211 -0.498988 0
-2.939885 -0.597558 0
-2.918276 -0.695460 0
-2.893408 -0.792586 0
-2.865307 -0.888827 0
-2.834007 -0.984075 0
-2.799542 -1.078223 0
-2.761950 -1.171168 0
-2.721273 -1.262804 0
-2.677557 -1.353030 0
-2.630850 -1.441745 0
-2.581205 -1.528850 0
-2.528677 -1.614247 0
-2.473325 -1.697841 0
-2.415210 -1.779539 0
-2.354398 -1.859250 0
-2.290957 -1.936884 0
-2.224956 -2.012354 0
-2.156471 -2.085577 0
-2.085577 -2.156471 0
-2.012354 -2.224956 0
-1.936884 -2.290957 0
-1.859250 -2.354398 0
-1.779539 -2.415210 0
-1.697841 -2.473325 0
-1.614247 -2.528677 0
-1.528850 -2.581205 0
-1.441745 -2.630850 0
-1.353030 -2.677557 0
-1.262804 -2.721273 0
-1.171168 -2.761950 0
-1.078223 -2.799542 0
-0.984075 -2.834007 0
-0.888827 -2.865307 0
-0.792586 -2.893408 0
-0.695460 -2.918276 0
-0.597558 -2.939885 0
-0.498988 -2.958211 0
-0.399861 -2.973232 0
-0.300287 -2.984933 0
-0.200378 -2.993301 0
-0.100245 -2.998325 0
-0.000000 -3.000000 0
0.100245 -2.998325 0
0.200378 -2.993301 0
0.300287 -2.984933 0
0.399861 -2.973232 0
0.498988 -2.958211 0
0.597558 -2.939885 0
0.695460 -2.918276 0
0.792586 -2.893408 0
0.888827 -2.865307 0
0.984075 -2.834007 0
1.078223 -2.799542 0
1.171168 -2.761950 0
1.262804 -2.721273 0
1.353030 -2.677557 0
1.441745 -2.630850 0
1.528850 -2.581205 0
1.614247 -2.528677 0
1.697841 -2.473325 0
1.779539 -2.415210 0
1.859250 -2.354398 0
1.936884 -2.290957 0
2.012354 -2.224956 0
2.085577 -2.156471 0
2.156471 -2.085577 0
2.224956 -2.012354 0
2.290957 -1.936884 0
2.354398 -1.859250 0
2.415210 -1.779539 0
2.473325 -1.697841 0
2.528677 -1.614247 0
2.581205 -1.528850 0
2.630850 -1.441745 0
2.677557 -1.353030 0
2.721273 -1.262804 0
2.761950 -1.171168 0
2.799542 -1.078223 0
2.834007 -0.984075 0
2.865307 -0.888827 0
2.893408 -0.792586 0
2.918276 -0.695460 0
2.939885 -0.597558 0
2.958211 -0.498988 0
2.973232 -0.399861 0
2.984933 -0.300287 0
2.993301 -0.200378 0
2.998325 -0.100245 0
-2.324894 -1.430045 0
-2.698687 -0.408960 0
-2.563153 -0.938305 0
-2.457351 -1.190633 0
-2.478756 -1.412760 0
-2.378859 -1.575167 0
-2.054651 -1.796822 0
-2.719976 0.227790 0
-2.727169 -0.136833 0
-2.833592 -0.332977 0
-2.805026 -0.521497 0
-2.694332 -0.986326 0
-2.582587 -1.251312 0
-2.236133 -1.705972 0
-2.159806 -1.888783 0
-1.865228 -1.994264 0
-2.530365 1.023428 0
-2.665346 0.588297 0
-2.833592 0.332977 0
-2.849507 0.142971 0
-2.866156 -0.143806 0
-2.724689 -0.697641 0
-2.017788 -2.017788 0
-1.878508 -2.148056 0
-1.506934 -2.275811 0
-2.170074 1.655576 0
-2.371379 1.351561 0
-2.525087 1.223452 0
-2.659868 1.075806 0
-2.801756 0.618406 0
-1.705882 -2.236015 0
-1.584057 -2.392285 0
-1.272079 -2.416193 0
-1.655576 2.170074 0
-1.930046 1.930046 0
-2.112140 1.847098 0
-2.281138 1.740307 0
-2.492745 1.420733 0
-2.665877 0.876058 0
-1.413005 -2.479186 0
-1.244258 -2.568028 0
-0.852133 -2.593072 0
-1.023428 2.530365 0
-1.430622 2.325831 0
-1.653776 2.324896 0
-1.805371 2.209243 0
-2.028824 2.028824 0
-2.339706 1.549242 0
-1.054525 -2.607252 0
-0.895744 -2.725784 0
-0.588535 -2.666421 0
-0.318553 2.710844 0
-0.677032 2.644198 0
-0.980791 2.679210 0
-1.157551 2.607719 0
-1.503533 2.444365 0
-0.707810 -2.764407 0
-0.521587 -2.805511 0
-0.136778 -2.726069 0
0.408960 2.698687 0
-0.045629 2.730220 0
-0.238106 2.843136 0
-0.427477 2.820883 0
-0.711681 2.779527 0
-1.310274 2.488740 0
-0.328232 -2.793214 0
-0.143778 -2.865587 0
0.136833 -2.727170 0
1.107408 2.494757 0
0.765006 2.620098 0
0.604758 2.739922 0
0.429889 2.836804 0
-0.047954 2.869362 0
0.140618 2.802621 0
0.047683 -2.853187 0
0.238147 -2.843631 0
0.588297 -2.665346 0
1.727166 2.113542 0
1.430045 2.324894 0
1.307144 2.482795 0
1.164084 2.622436 0
0.804160 2.754193 0
0.421385 -2.780682 0
0.618406 -2.801756 0
0.852477 -2.594119 0
2.224185 1.582136 0
1.993461 1.864477 0
1.916644 2.049238 0
1.815560 2.221712 0
1.503234 2.443880 0
0.964648 2.635115 0
0.799786 -2.739212 0
0.980961 -2.679675 0
1.271565 -2.415218 0
2.563153 0.938305 0
2.372339 1.352108 0
2.378859 1.575167 0
2.268336 1.730540 0
2.095485 1.959899 0
1.626558 2.286632 0
1.141057 -2.570560 0
1.336644 -2.538827 0
1.507542 -2.276729 0
2.719976 0.227790 0
2.665346 0.588297 0
2.710489 0.890718 0
2.644943 1.069769 0
2.493242 1.421016 0
1.495057 -2.430586 0
1.654064 -2.325300 0
1.864477 -1.993461 0
2.683514 -0.498905 0
2.726069 -0.136778 0
2.805479 0.046886 0
2.859183 0.239450 0
2.801756 0.618406 0
2.531132 1.226381 0
1.779643 -2.177760 0
1.959899 -2.095485 0
2.055479 -1.797546 0
2.563153 -0.938305 0
2.718181 -0.695975 0
2.820855 -0.524440 0
2.865587 -0.143778 0
2.774457 0.420442 0
2.084085 -1.949237 0
2.209627 -1.805685 0
2.324894 -1.430045 0
2.564560 -1.138393 0
2.694332 -0.986326 0
2.786955 -0.327497 0
2.291765 -1.630209 0
2.443880 -1.503234 0
2.493582 -1.312823 0
-2.580556 -1.093948 0
-2.481484 -1.300402 0
-2.570773 -1.355638 0
-2.329542 -1.276269 0
-2.160599 -1.781775 0
-2.085152 -1.631061 0
-2.262563 -1.807843 0
-2.792240 -0.228471 0
-2.896007 -0.244467 0
-2.642932 -0.265570 0
-2.803524 -0.003571 0
-2.674154 -0.838266 0
-2.048960 -1.909430 0
-2.120670 -1.986545 0
-1.908160 -1.845866 0
-2.564862 1.124420 0
-2.630193 1.208164 0
-2.763073 0.469602 0
-1.613085 -2.289293 0
-1.580098 -2.124384 0
-1.704620 -2.341269 0
-2.176664 1.762092 0
-2.217551 1.860120 0
-2.472017 1.316043 0
-2.571884 1.350667 0
-2.625375 0.974804 0
-2.728963 0.995819 0
-2.705133 0.732105 0
-1.471696 -2.382914 0
-1.520485 -2.476234 0
-1.352692 -2.284413 0
-2.036492 1.922378 0
-2.123663 1.982157 0
-1.882583 2.076287 0
-2.392102 1.456259 0
-2.445865 1.547809 0
-2.274555 1.633780 0
-2.368910 1.681416 0
-0.950950 -2.634121 0
-0.962703 -2.466363 0
-1.025501 -2.708434 0
-1.542256 2.338856 0
-1.606153 2.422167 0
-1.503036 2.190091 0
-0.789850 -2.687061 0
-0.812251 -2.789956 0
-0.701098 -2.560618 0
-0.827046 2.677889 0
-0.561668 2.745836 0
-1.397962 2.427612 0
-1.263634 2.328376 0
-1.405766 2.532266 0
-0.221239 -2.791766 0
-0.276893 -2.633075 0
-0.273509 -2.883134 0
0.499203 2.755657 0
0.565520 2.838620 0
-0.135040 2.798316 0
-0.147560 2.902560 0
-0.177107 2.650335 0
0.033998 2.801141 0
0.086038 2.893378 0
0.289060 2.787500 0
-0.051876 -2.800263 0
-0.046298 -2.905420 0
0.000316 -2.654865 0
1.209497 2.525859 0
1.295377 2.588354 0
0.707128 2.709761 0
0.717657 2.814934 0
0.524195 -2.751023 0
0.428602 -2.612682 0
0.497918 -2.852953 0
1.833844 2.116569 0
1.933183 2.154154 0
1.397911 2.426662 0
1.435853 2.525316 0
0.862050 2.664526 0
0.938642 2.738050 0
1.061986 2.591338 0
1.086452 2.694165 0
0.689782 -2.714474 0
0.722946 -2.814420 0
0.701709 -2.560454 0
1.989355 1.971119 0
2.052012 2.056243 0
2.138034 1.812153 0
1.535378 2.342106 0
1.628673 2.392780 0
1.708873 2.218693 0
1.759636 2.311403 0
1.232376 -2.514787 0
1.103615 -2.406610 0
1.233966 -2.620037 0
2.389086 1.463243 0
2.474486 1.524320 0
2.239097 1.429016 0
1.382425 -2.435788 0
1.440815 -2.523422 0
1.353235 -2.284089 0
2.796314 0.153213 0
2.892392 0.107936 0
2.704030 0.737103 0
2.472970 1.316064 0
2.369302 1.185130 0
2.577826 1.320365 0
1.852985 -2.099845 0
1.700229 -2.029531 0
1.882323 -2.200938 0
2.737435 -0.591004 0
2.818137 -0.660058 0
2.799871 -0.059688 0
2.904620 -0.045550 0
2.750945 0.524548 0
2.852228 0.492714 0
2.782844 0.314041 0
2.884776 0.342002 0
1.976831 -1.984013 0
2.056299 -2.053105 0
1.908601 -1.845415 0
2.674066 -0.838506 0
2.601005 -1.038088 0
2.669096 -1.119602 0
2.791784 -0.220877 0
2.881058 -0.278339 0
2.766936 -0.432332 0
2.872633 -0.432293 0
2.341916 -1.535686 0
2.176013 -1.508227 0
2.396920 -1.625436 0
2.427120 -1.397167 0
2.525365 -1.436001 0
2.322125 -1.246075 0
-2.764427 0.900641 0
2.580509 -1.356083 0
-2.408579 -1.481521 0
-2.795828 -0.423679 0
-2.224475 -1.549982 0
-2.817883 0.235992 0
-2.653063 -0.558581 0
-1.932269 -2.065945 0
-1.736558 -2.082844 0
-1.317802 -2.503038 0
-1.715169 2.248188 0
-1.124583 -2.467634 0
-1.060266 2.621447 0
-0.609688 -2.762259 0
-0.330020 2.808423 0
[...]
POINT_DATA 9113
SCALARS sol float 1
LOOKUP_TABLE default
1.499998
1.499996
1.499998
1.499997
1.499998
1.499996
1.499998
1.499997
1.499998
1.499997
1.499996
1.499996
1.499996
1.499997
1.499996
1.499998
1.499997
1.499997
1.499996
1.499996
1.499997
1.499998
1.499997
1.499997
1.499998
1.499996
1.499998
1.499997
1.499998
1.499996
1.499998
1.499997
1.499998
1.499996
1.499998
1.499997
1.499998
1.499996
1.499998
1.499997
1.499998
1.499996
1.499998
1.499997
1.499998
1.499998
1.499996
1.499998
1.499997
1.499997
1.499996
1.499996
1.499997
1.499998
1.499997
1.499997
1.499998
1.499997
1.499996
1.499996
1.499996
1.499997
1.499996
1.499998
1.499997
1.499997
1.499996
1.499996
1.499997
1.499998
1.499997
1.499997
1.499998
1.499996
1.499998
1.499997
1.499998
1.499996
1.499998
1.499997
1.499998
1.499996
1.499998
1.499997
1.499998
1.499997
1.499999
1.499997
1.499997
1.499998
1.499997
1.499996
1.499996
1.499997
1.499998
1.499997
1.499997
1.499997
1.499996
1.499996
1.499996
1.499997
1.499996
1.499998
1.499997
1.499997
1.499998
1.499997
1.499997
1.499997
1.499996
1.499996
1.499996
1.499997
1.499996
1.499998
1.499997
1.499997
1.499996
1.499996
1.499996
1.499997
1.499996
1.499998
1.499997
1.499997
1.499996
1.499996
1.499996
1.499997
1.499996
1.499998
1.499997
1.499997
1.499996
1.499996
1.499996
1.499997
1.499996
1.499998
1.499997
1.499997
1.499996
1.499996
1.499996
1.499997
1.499996
1.499998
1.499997
1.499997
1.499996
1.499996
1.499996
1.499997
1.499996
1.499998
1.499997
1.499997
1.499996
1.499996
1.499996
1.499997
1.499996
1.499998
1.499997
1.499997
1.499996
1.499996
1.499996
1.499997
1.499996
1.499998
1.499997
1.499998
1.499998
1.499998
1.499996
1.499998
1.499997
1.499998
1.499998
1.499996
1.499998
1.499997
1.499998
1.499996
1.499998
1.499997
1.887460
1.887460
1.887457
1.885954
1.714969
1.714970
1.887460
1.887460
1.885957
1.714970
1.714968
1.691933
1.691115
1.772342
1.691934
1.885959
1.887462
1.887459
1.714971
1.714968
1.691117
1.772343
1.714265
1.714266
1.887459
1.887462
1.887461
1.781775
1.691935
1.691934
1.772551
1.691934
1.885956
1.887462
1.887462
1.781774
1.691936
1.691935
1.781406
1.714264
1.714263
1.887461
1.887462
1.885957
1.714971
1.714970
1.691935
1.781406
1.772554
1.691935
1.885957
1.887462
1.887461
1.714970
1.714970
1.691117
1.714264
1.714264
1.887460
1.887460
1.885954
1.714971
1.714971
1.691934
1.772340
1.772555
1.691934
1.885955
1.887459
1.887463
1.781774
1.691934
1.691115
1.781385
1.714263
1.714263
1.887459
1.887459
1.887460
1.781775
1.691933
1.691936
1.772560
1.691934
1.885957
1.887462
1.887460
1.781775
1.691934
1.691934
1.781406
1.714265
1.714264
1.887461
1.887457
1.885953
1.714969
1.714971
1.691934
1.781406
1.772553
1.691935
1.885956
1.887460
1.887459
1.714968
1.714968
1.691115
1.714263
1.714264
1.887460
1.887461
1.887460
1.781773
1.691934
1.691934
1.772340
1.772558
1.691934
1.885958
1.887457
1.781777
1.691935
1.691934
1.781404
1.714266
1.714263
1.887460
1.781774
1.691933
1.781406
1.772559
1.691934
1.764637
1.786002
1.787798
1.638343
1.986093
1.789273
1.997946
1.653127
1.787800
1.638344
1.986096
1.785061
1.786553
1.788960
1.639099
1.987926
1.789290
1.655605
1.786226
1.789274
1.997570
1.653182
1.789291
1.655604
1.789290
1.640277
1.789290
1.640276
1.786570
1.788958
1.639098
1.987921
1.789291
1.640278
1.786228
1.789289
1.655507
1.789291
1.640276
1.789275
1.997564
1.653183
1.787800
1.638344
1.986096
1.788960
1.639099
1.987924
1.786226
1.786228
1.788101
1.995474
1.652863
1.789274
1.997562
1.653183
1.789288
1.655605
1.787797
1.638342
1.986090
1.788113
1.655240
1.786572
1.788958
1.639098
1.987922
1.789288
1.655605
1.789291
1.640278
1.789273
1.997548
1.653183
1.789288
1.655605
1.789289
1.640277
1.789292
1.655508
1.789287
1.640274
1.788958
1.639098
1.987920
1.789289
1.640277
1.786227
1.789289
1.655507
1.789289
1.640274
1.789275
1.997565
1.653182
1.787797
1.638342
1.986089
1.788959
1.639099
1.987924
1.789288
1.655604
1.786226
1.788099
1.995469
1.652862
1.789274
1.997556
1.653183
1.789290
1.655606
1.789289
1.640277
1.789288
1.655506
1.789290
1.640275
1.788958
1.639099
1.987922
1.786570
1.789287
1.655604
1.789289
1.655508
1.789289
1.640275
1.789274
1.997554
1.653184
1.789254
1.640109
2.013759
1.636697
1.625504
1.750961
1.750960
1.912317
1.750961
1.912311
1.749552
1.911531
1.749550
1.750962
1.911525
1.750962
1.749551
1.750961
1.912314
1.911527
1.749550
1.911523
1.749551
1.750962
1.911526
1.750958
1.749550
1.912314
1.911525
1.749552
1.911519
2.004978
1.644889
1.631686
1.857595
1.857598
2.382983
1.885593
2.160397
2.013752
2.066319
2.082030
2.012668
1.915134
1.929350
2.015802
1.837247
1.895547
2.465422
2.185987
2.259205
2.065359
2.141162
2.208832
2.339264
2.405702
2.406406
2.597610
1.986847
1.964051
1.948998
2.074213
2.121531
2.268942
2.304905
2.418157
2.224547
2.211145
2.392061
2.061891
2.079507
1.941252
1.955626
2.117881
2.263573
2.336616
2.347082
2.345886
2.204284
2.056760
2.214879
1.986060
1.943871
2.175309
2.039029
2.167146
2.020558
1.937284
2.286374
2.095572
2.279544
2.616215
2.389311
2.463003
2.305793
2.208535
2.112916
1.645677
1.632764
1.659260
1.642804
2.098105
1.858777
1.644021
1.642745
2.098002
1.858772
1.885219
2.195990
2.033935
2.041194
2.114844
1.992711
2.169319
2.502275
2.213956
2.330793
2.127933
2.250462
2.367560
2.053747
2.232417
2.559332
2.298215
2.502875
2.298147
2.466139
2.393659
2.424086
2.394249
2.214794
2.451987
2.296984
2.337022
2.100925
2.157300
2.183158
2.048842
2.147132
1.646241
1.632859
1.857598
2.098003
1.858775
1.644022
1.885221
2.044582
2.131865
1.964277
2.133617
2.265029
2.101236
1.885221
1.955995
2.095032
2.264812
2.030101
2.428383
2.248273
2.145626
2.009147
2.477744
2.398945
2.595222
2.320358
2.510596
2.647763
2.415678
2.578159
1.646241
1.632859
1.857595
1.642747
2.147585
2.098001
1.858773
2.097996
1.858770
2.101234
1.885223
1.955994
2.030102
2.428387
2.248274
2.145626
1.646240
1.632859
1.857594
2.098003
1.858775
1.644021
1.885218
2.326387
2.106665
1.982480
2.095352
2.097999
1.858771
2.146481
1.642744
2.109898
1.662364
1.840771
1.778129
1.897443
2.339613
1.840768
1.778124
2.108177
2.191017
1.839847
1.777422
1.897570
2.335206
1.839843
1.777416
1.897571
2.335204
1.840771
1.778127
1.897043
1.839845
1.777418
1.897571
2.335224
1.839842
1.777413
1.897573
2.335261
1.839844
1.777417
1.897570
2.335205
1.840769
1.778127
1.897042
1.839843
1.777415
1.897573
2.335243
1.839841
1.777410
1.897573
2.335225
1.896852
2.080033
2.226220
2.399424
2.115406
2.218453
2.111791
2.055481
2.195919
2.245626
1.862027
2.532820
2.903355
2.521421
2.738030
2.707589
2.641597
2.639737
2.766988
2.589958
2.474228
2.519735
2.344077
2.497321
2.636193
2.534864
2.141033
2.324417
2.207069
2.087367
1.992257
1.995199
1.638293
1.992231
1.995128
1.976089
1.992232
1.995129
1.638292
2.232358
2.123815
2.002164
2.519015
2.744502
2.647259
2.627532
2.806039
2.744954
2.705409
2.714122
2.856288
2.870900
2.997056
2.780555
3.125109
2.905636
2.986727
2.848289
2.904475
3.083358
3.000771
2.939500
3.128133
3.050601
2.211530
2.563436
1.661181
1.985924
1.886380
2.230235
2.077508
1.978831
1.944055
2.139858
2.115158
2.352606
2.105422
1.992231
1.995127
1.992229
1.995124
2.552808
2.123818
2.002166
2.279610
2.119515
2.452735
2.408095
2.377908
1.992232
1.995129
1.638292
2.043743
2.069828
2.247189
2.159975
1.990217
1.992972
1.992231
1.995126
1.985290
1.886250
2.228359
2.076321
1.978885
2.113988
2.349637
2.104254
2.204410
1.661331
2.000671
1.998772
2.144003
1.956215
1.959342
2.118559
2.115175
1.999763
2.052855
2.225846
2.141135
2.225844
2.141131
2.225854
2.141142
2.225864
2.141157
2.225844
2.141132
2.225859
2.141150
2.225854
2.141138
2.083912
1.988247
2.222748
2.251070
2.494254
2.353507
2.385519
2.556724
2.457272
2.553602
2.489870
2.402064
2.934478
2.446722
2.747894
2.644433
2.271871
2.640042
2.687747
2.527635
2.511249
2.488599
2.341388
2.837735
2.589310
2.762096
2.758372
2.733105
2.957413
2.876980
3.007432
2.848852
2.941887
2.924530
3.113253
2.842568
3.019643
2.757929
3.086945
2.643868
2.833934
3.032916
2.731019
2.960276
2.577230
2.640321
2.597051
2.234209
2.173251
2.611970
2.815900
2.930920
2.898806
3.209764
3.059347
2.971169
3.009466
3.105619
3.130026
3.038810
3.136321
3.123020
3.114585
3.007363
3.283809
2.900004
3.124382
3.199558
3.217027
3.168981
2.881631
2.950191
2.774293
3.009299
2.859978
2.747624
2.950065
2.846847
3.056314
2.925982
3.006316
2.805399
2.706065
3.111552
3.022663
2.851390
2.810244
3.054057
3.062921
2.915066
2.934707
2.660761
2.727246
2.718573
2.462094
2.301273
2.083862
2.860675
2.996807
2.456425
2.594076
2.835255
2.266284
2.140122
2.252483
2.251025
2.446938
1.923509
2.069054
2.175018
2.586704
2.379726
2.253620
2.394916
2.240600
2.279463
2.027260
2.182827
2.294886
2.289586
2.199501
2.670957
2.494371
2.393418
2.042022
2.117190
2.083280
1.985717
2.220965
2.024956
2.182209
2.294982
2.285152
2.662027
2.487564
2.387920
2.199437
2.117182
2.083279
1.985714
2.220965
2.024950
2.182198
2.294989
2.285148
2.662025
2.487562
2.387918
2.199440
2.117188
2.083285
1.985716
2.220976
2.024956
2.182193
2.294991
2.285163
2.662054
2.487586
2.387938
2.199440
2.117195
2.083285
1.985715
2.220988
2.024959
2.182170
2.294989
2.285188
2.662109
2.487629
2.387975
2.199434
2.117181
2.083279
1.985716
2.220965
2.024951
2.182200
2.294991
2.285149
2.662028
2.487564
2.387919
2.199441
2.117192
2.083285
1.985715
2.220982
2.024958
2.182183
2.294991
2.285176
2.662082
2.487608
2.387957
2.199438
2.117188
2.083282
1.985718
2.220974
2.024948
2.249605
2.160563
2.253412
2.358286
2.225149
2.843179
2.826414
2.815226
2.683017
2.929253
3.082185
3.029955
3.013051
3.274980
3.166653
3.099803
3.061287
3.238422
3.164650
3.173762
3.282243
3.201359
2.999407
2.988883
3.158707
3.275193
3.419026
3.405604
3.340084
3.339336
3.375694
3.201206
3.123643
2.996794
3.073706
3.103654
3.128917
2.895469
3.132402
3.282173
3.258813
3.342607
3.324617
3.522685
3.405119
3.310314
3.445725
3.359115
3.416514
3.249683
3.398227
2.723240
2.573486
2.614707
2.467598
2.920069
2.568325
2.478227
2.397426
2.558201
2.620984
2.611604
2.868252
2.818575
2.777417
2.723677
2.944328
2.637265
2.877418
2.429694
2.546877
2.555365
2.326107
2.211363
2.453327
2.564552
2.436155
2.728727
2.108506
2.276411
1.984659
2.134629
2.019740
2.733008
2.774826
2.892460
3.002329
2.841221
2.655521
2.660843
2.763457
2.850739
2.513801
2.377529
2.420363
2.295715
2.553216
2.380911
2.274420
2.543994
2.552393
2.733621
2.659422
2.751815
2.746327
2.839818
2.993173
3.026529
3.292050
3.156658
3.076263
3.009601
2.392825
2.268630
2.159008
2.083045
2.393688
2.634654
2.377951
2.344503
2.375699
2.757524
2.471290
2.628914
2.527562
2.685162
2.469799
2.591904
2.337383
2.573505
2.419486
2.820569
2.448802
2.329172
2.389673
2.463567
2.695397
2.447071
2.741952
3.001087
2.894433
2.774838
2.697026
2.609274
2.703078
2.869565
2.774237
2.704866
2.715899
2.506061
2.578187
2.595962
2.522475
2.592828
2.688109
2.441907
2.325242
2.381791
2.545191
2.120810
2.454692
2.391878
2.439138
2.630353
2.528417
2.554042
2.502285
2.393378
2.622141
2.788629
2.454745
2.385762
2.441777
2.632229
2.529628
2.555792
2.454756
2.385758
2.441788
2.632224
2.529630
2.555799
2.454763
2.385775
2.441775
2.632190
2.529611
2.555783
2.454744
2.385803
2.441760
2.632158
2.529587
2.555779
2.385760
2.438192
2.567710
2.491659
2.247682
2.300720
2.415101
3.215072
3.300037
3.402490
3.538291
3.472708
3.498394
3.504250
3.444306
3.407529
3.461104
3.433029
3.507418
3.452086
3.637923
3.374952
3.586658
3.550489
3.526592
3.481319
3.511246
3.531625
3.001832
2.925170
2.902367
2.836692
2.843884
2.961919
2.947103
2.928978
2.913058
3.219190
3.330167
3.284029
3.345841
2.660682
2.645011
2.422510
2.256840
2.538295
2.526963
2.412792
2.290731
2.159171
2.551117
2.434769
2.345504
2.475588
2.497943
2.709448
2.660943
2.561589
2.729387
2.842456
2.976127
3.029534
3.239530
3.134276
3.174213
3.192507
3.192384
3.301369
3.092920
3.093801
2.983072
2.874697
3.040405
2.777626
2.806166
2.785952
2.872546
2.326365
2.673167
3.051350
2.952214
3.082958
3.332186
3.154842
3.222413
3.098639
3.156837
3.197935
2.984134
3.151602
3.264723
3.283167
3.002877
3.069430
2.920360
2.863144
2.933548
3.078825
3.226686
2.824557
2.713846
2.958733
2.764159
2.848401
2.562060
2.662710
2.548629
2.592824
2.477100
3.026926
2.984512
2.776870
2.942744
3.036260
2.883870
3.242539
2.877083
3.117897
2.842449
2.781708
2.669770
3.307148
2.328969
2.214901
2.317445
2.470677
2.279405
2.104335
2.409176
1.965554
1.949619
2.692354
2.088154
2.571190
2.604838
2.552878
2.496498
2.277154
2.404152
2.320098
2.507132
2.516116
2.540274
2.696000
2.653402
2.575931
2.541754
2.617348
2.554430
2.474814
2.565501
2.557035
2.691680
2.345793
2.822202
2.379383
2.208240
2.837197
2.732794
2.675402
2.217956
2.138467
2.039183
3.170150
2.221447
3.004607
2.907253
3.019506
2.908019
2.964886
3.098623
2.839522
2.589897
2.343425
2.553295
2.836462
2.785759
2.812627
2.705629
2.652045
2.929498
2.516784
2.758126
2.742430
2.745539
2.655172
2.528553
3.189697
2.366784
3.082400
2.470744
2.403729
3.017708
2.968648
2.864498
2.301432
2.966003
2.991273
2.951980
2.866492
3.076762
2.681824
2.930238
2.810949
3.154229
3.124256
3.215254
2.742115
2.624642
2.458125
2.733096
3.146028
3.075069
3.276854
3.071314
3.218243
3.294747
3.012031
3.204774
3.021325
3.160222
2.746751
3.236749
3.515156
3.113694
3.281279
3.407246
3.217006
3.225014
3.340623
3.355787
3.419781
3.445700
3.127925
2.959875
2.464189
2.340743
2.332312
2.489136
2.614717
2.789190
2.613721
2.702404
2.776709
2.686331
2.331683
2.708708
2.729759
2.614855
2.340760
2.332335
2.489144
2.614716
2.963010
2.613185
2.803695
2.711281
2.775269
2.340769
2.332345
2.489173
2.614746
2.963051
2.613219
2.803731
2.711314
2.775330
2.340774
2.332352
2.489230
2.614805
2.963135
2.613294
2.803802
2.711377
2.775486
2.340759
2.332335
2.489145
2.614718
2.937338
2.613185
2.788931
2.702244
2.779100
2.688358
3.359784
3.286616
3.221586
3.504528
3.616251
3.566961
3.569469
3.601986
3.617572
3.543834
3.607246
3.686592
3.654995
3.585733
3.647472
3.697785
3.603726
3.659323
3.634122
3.615992
3.675521
3.646862
3.687003
3.646621
3.678799
3.734971
3.677260
3.713843
3.668308
3.716962
3.695070
3.703629
3.722646
3.723831
3.705828
3.736238
3.740941
3.736430
3.464190
3.488409
3.387578
3.254786
3.391744
3.315924
3.233771
3.335001
3.448525
3.473313
3.479564
3.552023
3.183823
3.093106
3.183791
3.123082
3.172305
3.161259
3.284754
3.333846
3.573348
3.612139
3.077977
3.049819
3.023961
3.376809
3.300159
3.211239
3.182039
3.279208
3.273232
3.374407
3.339406
2.309749
3.114536
3.264270
3.214909
3.164365
2.938351
2.564142
2.654889
2.843479
2.852019
2.952533
2.632606
2.771028
2.601064
2.634259
2.727708
2.854177
2.946838
3.263248
2.514116
2.385739
2.425287
2.228972
3.165189
3.101848
3.171993
3.184744
3.007782
2.701071
2.690638
2.746399
2.542096
2.645147
2.642587
2.595190
2.503878
2.651463
2.766745
2.788487
3.204496
2.175682
1.981979
1.944363
2.265120
2.089253
2.018200
2.599630
2.766251
2.733620
2.800486
1.926992
2.056110
3.091588
3.041029
3.100802
2.985107
3.289877
2.924435
3.235430
2.852787
3.181315
3.144369
3.036247
3.214516
3.108800
2.975393
3.190043
3.217880
3.039289
2.977665
3.125280
3.031219
2.897743
2.254651
3.046988
2.448604
2.304850
2.153171
2.196660
2.004433
2.349168
2.021492
2.774389
2.889973
2.857453
2.830552
3.332526
3.354648
3.418148
3.551966
3.410388
3.485327
3.506630
3.514432
3.517753
3.453628
3.617632
3.296430
3.577667
3.384370
3.376232
3.566550
3.645229
3.440278
3.336288
3.362054
3.494389
3.586938
3.606382
3.241629
3.272433
3.521615
3.545855
3.645385
3.613490
3.631475
3.204105
3.133841
3.454682
3.605710
3.728956
3.572362
3.105794
3.144836
3.381677
3.601745
3.684117
3.694510
3.597116
3.090917
3.406032
3.557279
3.660381
3.666279
3.689939
3.658950
3.519651
3.644876
3.665637
3.691748
3.719725
3.711685
3.712773
3.722464
3.718647
3.557258
3.656597
3.496372
3.664699
3.629137
3.701237
3.579512
3.690457
3.617054
3.585991
3.637820
3.640858
3.684012
3.433723
3.442707
3.364329
3.301372
3.412280
3.401452
3.468469
3.463220
3.461893
3.489788
2.994201
2.823251
2.828968
2.870737
2.971861
2.899282
2.885853
2.787279
2.775387
2.745243
2.836500
2.856909
2.601729
2.714092
2.862631
2.934949
2.926275
3.075208
2.765685
2.853080
2.673260
2.714156
2.862670
2.935741
2.876911
2.797519
2.875176
2.992603
2.699921
3.076741
3.141380
3.102243
3.040333
3.335946
3.066717
3.214233
3.080198
3.143096
3.197075
3.328019
3.269845
3.250683
3.050163
2.924565
3.199324
3.005897
2.901499
3.158764
3.124721
2.714320
2.862749
2.765516
2.673138
2.821389
2.853272
2.843658
2.766163
2.673692
2.922402
2.833508
3.500767
3.662422
3.670960
3.645405
3.645597
3.687927
3.586287
3.684161
3.630085
3.397046
3.585535
3.635234
3.572730
3.599165
3.585248
3.641021
3.585274
3.653776
3.520265
3.615634
3.636177
3.552691
3.452131
3.500165
3.425262
3.520072
3.516699
3.470910
3.011846
3.012833
3.059364
3.091979
2.980322
2.865902
3.032044
3.128106
2.766911
3.260470
3.217670
3.296336
3.360086
3.446652
3.312110
2.752101
3.015343
3.183494
3.223656
3.220415
3.313917
3.316400
3.269041
3.514702
3.417554
3.476255
3.358560
3.399473
3.381597
3.450878
3.324081
3.429941
3.486686
3.409870
3.605806
3.469612
3.458701
3.484537
3.370806
3.544710
3.560914
3.336448
3.396830
3.305717
3.233147
3.536638
3.601792
3.564009
3.534566
3.600549
3.639618
3.677918
3.669543
3.713410
3.644865
3.695462
3.710170
3.643606
3.573213
3.513633
3.531311
3.491294
3.484065
3.408317
3.442524
3.357945
3.576541
3.520100
2.147373
1.967958
1.949100
2.062865
2.129149
2.259827
3.195866
2.917926
2.931586
3.038258
2.503529
2.409191
2.306605
2.283058
2.210268
2.105135
2.052886
1.958444
1.967892
2.395439
2.980699
2.666099
3.138201
3.160931
3.077129
2.200042
2.047554
2.237328
2.095043
2.804922
2.906645
2.835815
2.899479
2.767923
2.768814
2.654063
2.692402
2.678734
2.691795
2.764813
2.878329
2.021034
1.997563
1.943260
2.289071
2.176446
2.054341
1.986201
1.943968
2.235574
2.161937
2.182001
2.535979
2.811834
2.794789
2.973245
2.931269
3.464325
3.266382
3.298035
3.253711
3.175139
3.210046
3.176220
3.323062
3.321421
3.289078
3.616811
3.572734
3.547793
3.614910
3.576851
3.530957
3.441234
3.481016
3.384025
3.303532
3.362617
3.430142
3.630527
3.260957
3.263984
3.353060
3.133448
3.109081
3.189566
3.345957
3.742950
3.742775
3.685328
3.654945
3.638925
3.629678
3.661150
3.690576
3.551009
3.680827
3.222486
3.526639
2.911633
3.012320
3.038537
2.888426
3.022197
2.972373
3.181161
3.254300
3.229128
3.343680
3.284770
3.410043
3.392049
3.414323
3.467822
3.445538
3.444640
3.257081
2.878597
2.778063
3.064472
2.904243
2.973936
3.527256
3.674106
3.634801
3.705662
3.723682
3.586958
3.695792
3.729566
3.528926
3.549508
3.584500
3.619687
3.564881
3.583568
3.552376
3.647385
3.580033
3.358418
3.411621
3.424556
3.349645
3.474252
3.474436
3.427963
3.463178
3.383836
3.529725
3.551471
3.498941
3.420695
3.487292
3.428748
3.365622
3.488623
3.473977
3.378434
3.286151
3.234024
3.410244
3.349835
3.363706
3.352779
3.683390
3.659379
3.722138
3.724563
3.706023
3.725551
3.737981
3.720046
3.608809
3.583886
3.607918
3.455678
3.515674
3.510354
3.463577
3.338102
3.407592
3.370254
3.340445
3.291476
3.271729
3.220302
3.031941
3.123170
3.517935
3.122380
3.090563
3.031680
3.544605
3.182038
2.968514
2.898546
2.875082
3.092303
3.020498
2.936878
2.798094
2.759249
2.877453
2.858792
3.029239
3.171916
3.117626
3.281399
3.124441
2.960396
3.188787
3.060902
2.439889
2.502502
2.329003
2.147459
3.152904
3.233601
2.068109
2.248223
2.070463
1.974852
1.943625
2.117609
2.266408
2.384370
2.131463
2.659151
2.604804
2.570562
2.481070
2.919250
2.568518
2.808467
2.912895
2.977860
3.363124
3.733887
3.742128
3.731924
3.692174
3.709064
3.713393
3.174608
2.963449
3.076252
3.548027
3.492062
3.706870
3.605090
3.561902
3.521172
3.493803
3.485044
3.433864
3.336216
3.275953
3.191495
3.497511
3.581435
3.097495
3.478697
3.567381
3.536204
3.620965
3.123559
3.462615
3.637022
3.674318
3.618270
3.649038
3.413711
3.607516
3.554799
2.717524
2.880949
3.264860
3.297867
2.444880
2.468399
2.338911
2.579952
2.549091
2.652357
2.641702
2.365516
2.438892
2.252248
2.117097
2.382436
2.396925
2.083762
2.269831
2.595268
2.686454
2.723466
2.652890
2.707963
2.520290
2.659769
2.586960
2.570376
2.655142
2.429651
2.418608
2.362047
2.453756
2.919915
2.829780